# vtk DataFile Version 4.2
vtk output
ASCII
DATASET UNSTRUCTURED_GRID
POINTS 892 double
0 0 0 0.07853981634 0 0 0.15707963268 0 0 
0.23561944902 0 0 0.31415926536 0 0 0.3926990817 0 0 
0.47123889804 0 0 0.54977871438 0 0 0.62831853072 0 0 
0.70685834706 0 0 0.7853981634 0 0 0.86393797974 0 0 
0.94247779608 0 0 1.0210176124 0 0 1.0995574288 0 0 
1.1780972451 0 0 1.2566370614 0 0 1.3351768778 0 0 
1.4137166941 0 0 1.4922565105 0 0 0 0.07853981634 0 
0.07853981634 0.07853981634 0 0.15707963268 0.07853981634 0 0.23561944902 0.07853981634 0 
0.31415926536 0.07853981634 0 0.3926990817 0.07853981634 0 0.47123889804 0.07853981634 0 
0.54977871438 0.07853981634 0 0.62831853072 0.07853981634 0 0.70685834706 0.07853981634 0 
0.7853981634 0.07853981634 0 0.86393797974 0.07853981634 0 0.94247779608 0.07853981634 0 
1.0210176124 0.07853981634 0 1.0995574288 0.07853981634 0 1.1780972451 0.07853981634 0 
1.2566370614 0.07853981634 0 1.3351768778 0.07853981634 0 1.4137166941 0.07853981634 0 
1.4922565105 0.07853981634 0 1.5707963268 0.07853981634 0 0 0.15707963268 0 
0.07853981634 0.15707963268 0 0.15707963268 0.15707963268 0 0.23561944902 0.15707963268 0 
0.31415926536 0.15707963268 0 0.3926990817 0.15707963268 0 0.47123889804 0.15707963268 0 
0.54977871438 0.15707963268 0 0.62831853072 0.15707963268 0 0.70685834706 0.15707963268 0 
0.7853981634 0.15707963268 0 0.86393797974 0.15707963268 0 0.94247779608 0.15707963268 0 
1.0210176124 0.15707963268 0 1.0995574288 0.15707963268 0 1.1780972451 0.15707963268 0 
1.2566370614 0.15707963268 0 1.3351768778 0.15707963268 0 1.4137166941 0.15707963268 0 
1.4922565105 0.15707963268 0 1.5707963268 0.15707963268 0 1.6493361431 0.15707963268 0 
0 0.23561944902 0 0.07853981634 0.23561944902 0 0.15707963268 0.23561944902 0 
0.23561944902 0.23561944902 0 0.31415926536 0.23561944902 0 0.3926990817 0.23561944902 0 
0.47123889804 0.23561944902 0 0.54977871438 0.23561944902 0 0.62831853072 0.23561944902 0 
0.70685834706 0.23561944902 0 0.7853981634 0.23561944902 0 0.86393797974 0.23561944902 0 
0.94247779608 0.23561944902 0 1.0210176124 0.23561944902 0 1.0995574288 0.23561944902 0 
1.1780972451 0.23561944902 0 1.2566370614 0.23561944902 0 1.3351768778 0.23561944902 0 
1.4137166941 0.23561944902 0 1.4922565105 0.23561944902 0 1.5707963268 0.23561944902 0 
1.6493361431 0.23561944902 0 0 0.31415926536 0 0.07853981634 0.31415926536 0 
0.15707963268 0.31415926536 0 0.23561944902 0.31415926536 0 0.31415926536 0.31415926536 0 
0.3926990817 0.31415926536 0 0.47123889804 0.31415926536 0 0.54977871438 0.31415926536 0 
0.62831853072 0.31415926536 0 0.70685834706 0.31415926536 0 0.7853981634 0.31415926536 0 
0.86393797974 0.31415926536 0 0.94247779608 0.31415926536 0 1.0210176124 0.31415926536 0 
1.0995574288 0.31415926536 0 1.1780972451 0.31415926536 0 1.2566370614 0.31415926536 0 
1.3351768778 0.31415926536 0 0 0.3926990817 0 0.07853981634 0.3926990817 0 
0.15707963268 0.3926990817 0 0.23561944902 0.3926990817 0 0.31415926536 0.3926990817 0 
0.3926990817 0.3926990817 0 0.47123889804 0.3926990817 0 0.54977871438 0.3926990817 0 
0.62831853072 0.3926990817 0 0.70685834706 0.3926990817 0 0.7853981634 0.3926990817 0 
0.86393797974 0.3926990817 0 0.94247779608 0.3926990817 0 1.0210176124 0.3926990817 0 
1.0995574288 0.3926990817 0 1.1780972451 0.3926990817 0 1.2566370614 0.3926990817 0 
1.3351768778 0.3926990817 0 0 0.47123889804 0 0.07853981634 0.47123889804 0 
0.15707963268 0.47123889804 0 0.23561944902 0.47123889804 0 0.31415926536 0.47123889804 0 
0.3926990817 0.47123889804 0 0.47123889804 0.47123889804 0 0.54977871438 0.47123889804 0 
0.62831853072 0.47123889804 0 0.70685834706 0.47123889804 0 0.7853981634 0.47123889804 0 
0.86393797974 0.47123889804 0 0.94247779608 0.47123889804 0 1.0210176124 0.47123889804 0 
1.0995574288 0.47123889804 0 1.1780972451 0.47123889804 0 1.2566370614 0.47123889804 0 
1.3351768778 0.47123889804 0 1.4137166941 0.47123889804 0 1.4922565105 0.47123889804 0 
1.5707963268 0.47123889804 0 0 0.54977871438 0 0.07853981634 0.54977871438 0 
0.15707963268 0.54977871438 0 0.23561944902 0.54977871438 0 0.31415926536 0.54977871438 0 
0.3926990817 0.54977871438 0 0.47123889804 0.54977871438 0 0.54977871438 0.54977871438 0 
0.62831853072 0.54977871438 0 0.70685834706 0.54977871438 0 0.7853981634 0.54977871438 0 
0.86393797974 0.54977871438 0 0.94247779608 0.54977871438 0 1.0210176124 0.54977871438 0 
1.0995574288 0.54977871438 0 1.1780972451 0.54977871438 0 1.2566370614 0.54977871438 0 
1.3351768778 0.54977871438 0 1.4137166941 0.54977871438 0 1.4922565105 0.54977871438 0 
1.5707963268 0.54977871438 0 1.6493361431 0.54977871438 0 1.7278759595 0.54977871438 0 
1.8064157758 0.54977871438 0 0 0.62831853072 0 0.07853981634 0.62831853072 0 
0.15707963268 0.62831853072 0 0.23561944902 0.62831853072 0 0.31415926536 0.62831853072 0 
0.3926990817 0.62831853072 0 0.47123889804 0.62831853072 0 0.54977871438 0.62831853072 0 
0.62831853072 0.62831853072 0 0.70685834706 0.62831853072 0 0.7853981634 0.62831853072 0 
0.86393797974 0.62831853072 0 0.94247779608 0.62831853072 0 1.0210176124 0.62831853072 0 
1.0995574288 0.62831853072 0 1.1780972451 0.62831853072 0 1.2566370614 0.62831853072 0 
1.3351768778 0.62831853072 0 1.4137166941 0.62831853072 0 1.4922565105 0.62831853072 0 
1.5707963268 0.62831853072 0 1.6493361431 0.62831853072 0 1.7278759595 0.62831853072 0 
1.8064157758 0.62831853072 0 0 0.70685834706 0 0.07853981634 0.70685834706 0 
0.15707963268 0.70685834706 0 0.23561944902 0.70685834706 0 0.31415926536 0.70685834706 0 
0.3926990817 0.70685834706 0 0.47123889804 0.70685834706 0 0.54977871438 0.70685834706 0 
0.62831853072 0.70685834706 0 0.70685834706 0.70685834706 0 0.7853981634 0.70685834706 0 
0.86393797974 0.70685834706 0 0.94247779608 0.70685834706 0 1.0210176124 0.70685834706 0 
1.0995574288 0.70685834706 0 1.1780972451 0.70685834706 0 1.2566370614 0.70685834706 0 
1.3351768778 0.70685834706 0 1.4137166941 0.70685834706 0 1.4922565105 0.70685834706 0 
1.5707963268 0.70685834706 0 1.6493361431 0.70685834706 0 1.7278759595 0.70685834706 0 
1.8064157758 0.70685834706 0 0 0.7853981634 0 0.07853981634 0.7853981634 0 
0.15707963268 0.7853981634 0 0.23561944902 0.7853981634 0 0.31415926536 0.7853981634 0 
0.3926990817 0.7853981634 0 0.47123889804 0.7853981634 0 0.54977871438 0.7853981634 0 
0.62831853072 0.7853981634 0 0.70685834706 0.7853981634 0 0.7853981634 0.7853981634 0 
0.86393797974 0.7853981634 0 0.94247779608 0.7853981634 0 1.0210176124 0.7853981634 0 
1.0995574288 0.7853981634 0 1.1780972451 0.7853981634 0 1.2566370614 0.7853981634 0 
1.3351768778 0.7853981634 0 1.4137166941 0.7853981634 0 1.4922565105 0.7853981634 0 
1.5707963268 0.7853981634 0 1.6493361431 0.7853981634 0 1.7278759595 0.7853981634 0 
1.8064157758 0.7853981634 0 0 0.86393797974 0 0.07853981634 0.86393797974 0 
0.15707963268 0.86393797974 0 0.23561944902 0.86393797974 0 0.31415926536 0.86393797974 0 
0.3926990817 0.86393797974 0 0.47123889804 0.86393797974 0 0.54977871438 0.86393797974 0 
0.62831853072 0.86393797974 0 0.70685834706 0.86393797974 0 0.7853981634 0.86393797974 0 
0.86393797974 0.86393797974 0 0.94247779608 0.86393797974 0 1.0210176124 0.86393797974 0 
1.0995574288 0.86393797974 0 1.1780972451 0.86393797974 0 1.2566370614 0.86393797974 0 
1.3351768778 0.86393797974 0 1.4137166941 0.86393797974 0 1.4922565105 0.86393797974 0 
1.5707963268 0.86393797974 0 0 0.94247779608 0 0.07853981634 0.94247779608 0 
0.15707963268 0.94247779608 0 0.23561944902 0.94247779608 0 0.31415926536 0.94247779608 0 
0.3926990817 0.94247779608 0 0.47123889804 0.94247779608 0 0.54977871438 0.94247779608 0 
0.62831853072 0.94247779608 0 0.70685834706 0.94247779608 0 0.7853981634 0.94247779608 0 
0.86393797974 0.94247779608 0 0.94247779608 0.94247779608 0 1.0210176124 0.94247779608 0 
1.0995574288 0.94247779608 0 1.1780972451 0.94247779608 0 1.2566370614 0.94247779608 0 
1.3351768778 0.94247779608 0 1.4137166941 0.94247779608 0 1.4922565105 0.94247779608 0 
1.5707963268 0.94247779608 0 1.6493361431 0.94247779608 0 0 1.0210176124 0 
0.07853981634 1.0210176124 0 0.15707963268 1.0210176124 0 0.23561944902 1.0210176124 0 
0.31415926536 1.0210176124 0 0.3926990817 1.0210176124 0 0.47123889804 1.0210176124 0 
0.54977871438 1.0210176124 0 0.62831853072 1.0210176124 0 0.70685834706 1.0210176124 0 
0.7853981634 1.0210176124 0 0.86393797974 1.0210176124 0 0.94247779608 1.0210176124 0 
1.0210176124 1.0210176124 0 1.0995574288 1.0210176124 0 1.1780972451 1.0210176124 0 
1.2566370614 1.0210176124 0 1.3351768778 1.0210176124 0 1.4137166941 1.0210176124 0 
1.4922565105 1.0210176124 0 1.5707963268 1.0210176124 0 1.6493361431 1.0210176124 0 
0 1.0995574288 0 0.07853981634 1.0995574288 0 0.15707963268 1.0995574288 0 
0.23561944902 1.0995574288 0 0.31415926536 1.0995574288 0 0.3926990817 1.0995574288 0 
0.47123889804 1.0995574288 0 0.54977871438 1.0995574288 0 0.62831853072 1.0995574288 0 
0.70685834706 1.0995574288 0 0.7853981634 1.0995574288 0 0.86393797974 1.0995574288 0 
0.94247779608 1.0995574288 0 1.0210176124 1.0995574288 0 1.0995574288 1.0995574288 0 
0 1.1780972451 0 0.07853981634 1.1780972451 0 0.15707963268 1.1780972451 0 
0.23561944902 1.1780972451 0 0.31415926536 1.1780972451 0 0.3926990817 1.1780972451 0 
0.47123889804 1.1780972451 0 0.54977871438 1.1780972451 0 0.62831853072 1.1780972451 0 
0.70685834706 1.1780972451 0 0.7853981634 1.1780972451 0 0.86393797974 1.1780972451 0 
0.94247779608 1.1780972451 0 1.0210176124 1.1780972451 0 1.0995574288 1.1780972451 0 
0 1.2566370614 0 0.07853981634 1.2566370614 0 0.15707963268 1.2566370614 0 
0.23561944902 1.2566370614 0 0.31415926536 1.2566370614 0 0.3926990817 1.2566370614 0 
0.47123889804 1.2566370614 0 0.54977871438 1.2566370614 0 0.62831853072 1.2566370614 0 
0.70685834706 1.2566370614 0 0.7853981634 1.2566370614 0 0.86393797974 1.2566370614 0 
[...]
POINT_DATA 892
FIELD FieldData 1
SOLUTION_10.0_COMPLEX 2 892 double
1 -0 -1.4659300329 0.66141734664 -3.5596179088 0.95522927296 -4.4263181375 0.69814164444 -3.6756194076 
-0.017777218592 -1.5771781535 -0.87233101475 1.0399258159 -1.4766956221 3.1463547708 -1.5625661844 3.9640849266 -1.1054296238 
3.2967774506 -0.32306616056 1.58445697 0.44379373203 -0.33557180372 0.90194306751 -1.6356016631 0.93794046285 -1.8682520729 
0.64776387167 -1.124221344 0.25709145045 0.084236615593 -0.016695051968 1.1229350513 -0.076540168573 1.5381991776 0.030122098877 
1.1952495743 0.17935744156 0.26835057649 0.278413823 1 -0 -1.2188923616 0.65628546176 -3.1384776763 
0.95740862963 -3.9541321009 0.72688703534 -3.2875881868 0.054586757122 -1.3800776253 -0.75029019816 0.99783014293 -1.3149480281 
2.8858138332 -1.3862962483 3.5635816048 -0.94851682289 2.8644840901 -0.21813527789 1.2235277647 0.47526228602 -0.55699764629 
0.85607837434 -1.7009204749 0.82950678286 -1.8118826808 0.50572492067 -1.0160554424 0.11645442866 0.16249326164 -0.12354250026 
1.1179918173 -0.13529357765 1.4582574747 0.0097265914453 1.1311117245 0.16800746986 0.28872151625 0.23293110132 -0.038136155693 
0.0455254743 1 -0 -0.54931004277 0.63184363001 -1.9983366953 0.94419776202 -2.6787010415 0.78039058995 
-2.244039205 0.22470836999 -0.85639916996 -0.44400495696 0.87459336562 -0.89754975283 2.1771116749 -0.92529457708 2.4870170354 
-0.53582092817 1.7159449622 0.05750241743 0.28197265995 0.5555139257 -1.1107127567 0.73066276377 -1.8274084541 0.5386620711 
-1.6097236857 0.12763158807 -0.67821275908 -0.25513716059 0.41563121626 -0.40418988718 1.0987055857 -0.26457164314 1.188067838 
-0.011181182684 0.83295111471 0.16892290501 0.39815165509 0.17195511838 0.054449153959 0.085916056293 -0.017264066748 -0.00037174032635 
1 -0 0.35033010245 0.56768403396 -0.47072865168 0.86976661115 -0.97913111874 0.7802760431 -0.86821234213 
0.37708890173 -0.18690579709 -0.1035901795 0.67878590772 -0.39712853594 1.2147272861 -0.35372047316 1.0654609658 -0.017200106223 
0.24082503714 0.40274342448 -0.87437214756 0.64873498409 -1.7177630409 0.55896890728 -1.8501289168 0.15719177783 -1.1970297018 
-0.35913642473 -0.098494513416 -0.72506052691 0.86377870188 -0.74977540784 1.1749469007 -0.418003524 0.54774282672 0.16820783214 
0.17122798718 0.21460521633 0.07928308354 0.11921958185 0.014286198002 0.049714836939 -0.0048368469033 0.0087500929127 1 
-0 1.2258462034 0.44844295714 1.0072390089 0.69509003032 0.64617504645 0.65148936949 0.41695449239 0.39101543953 
0.39410429733 0.10439500586 0.42386839095 -0.012944007465 0.25150802769 0.12228473632 -0.27791499936 0.4274898711 -1.0732315568 
0.69609589944 -1.8031530419 0.71389716722 -2.0631424981 0.38603481848 -1.6144345964 -0.196828272 -0.55755885401 -0.79235529962 
0.66799145011 -1.1250027562 1.4731174808 -1.0266680568 1.4080855651 -0.5222706903 0.45107190051 0.15760810904 1 
-0 1.8388850127 0.28047733423 2.0271498227 0.42197672935 1.7346479957 0.3742056858 1.2235653087 0.20941493524 
0.67744341164 0.079140549062 0.1296248531 0.11780078703 -0.47896700025 0.35017637734 -1.1679601639 0.66003421265 -1.8140231706 
0.84357454927 -2.1594204558 0.72249373188 -1.9433094622 0.2550142155 -1.0834524582 -0.4193902766 0.20592252823 -1.0319451452 
1.447572105 -1.3110230401 2.0906526573 -1.1185582798 1.7640353522 -0.52333013696 0.53381823457 0.2107136612 1 
-0 2.0380737979 0.098680056218 2.3323236905 0.10838063382 2.0014190062 0.01003542425 1.3218273961 -0.12247982108 
0.55141833166 -0.16408679595 -0.17387585995 -0.022091909895 -0.8263787345 0.28947645208 -1.3919817317 0.63398802082 -1.7809783461 
0.81193330562 -1.8223276253 0.66886096544 -1.358510048 0.19283005353 -0.38428160228 -0.45637489922 0.86698565289 -1.0096299573 
1.964141338 -1.2159816682 2.4478588474 -0.97093024179 2.0531241438 -0.37871790268 0.69205882537 0.34155629445 0.033170898429 
0.30193403068 -0.027406445788 0.16039889711 -0.042266722058 0.022842809681 1 -0 1.8014111256 -0.042046710732 
1.8906833182 -0.14600494256 1.4224842356 -0.313873798 0.71120670838 -0.46989251913 0.043212470211 -0.50026603235 -0.44275711187 
-0.32881109575 -0.754322704 0.018315001496 -0.95057158062 0.40293693034 -1.0361633419 0.63408995917 -0.92611013316 0.56895260435 
-0.50877450734 0.20037686035 0.23695376139 -0.32151593728 1.1570932994 -0.75276276027 1.94298913 -0.87630469253 2.2658632946 
-0.61856966938 1.9540077191 -0.096993797369 1.2617183596 0.3740472609 0.58791726044 0.58592084494 0.18392758732 0.50059281146 
-0.062029264087 0.20622745952 -0.076471787754 0.055901109106 -0.037907683594 0.020606802825 -0.011542770166 -0.0020012866715 1 
-0 1.2370458635 -0.088334934247 0.89505926418 -0.23985994562 0.23292444168 -0.45821206852 -0.38403447013 -0.66859184015 
-0.68664305946 -0.75485986602 -0.6216874681 -0.63237754005 -0.33326761067 -0.31209433123 -0.034499144982 0.086448136735 0.14024625141 
0.38718059145 0.20864227131 0.44996078093 0.29895145294 0.25229397649 0.52996279127 -0.088691535653 0.89970703707 -0.37194108551 
1.2637091205 -0.42005572365 1.4231890686 -0.1812249364 1.2797977599 0.22921777042 0.90940023105 0.60027444297 0.49606785253 
0.76043195418 0.17488604436 0.67651467266 -0.0035013800478 0.4641450389 -0.067947528839 0.25463391169 -0.060523662894 0.11193317194 
-0.030478637985 0.013748742575 1 -0 0.54331258133 -0.013491669764 -0.30749038226 -0.11829848427 -1.1579615335 
-0.33823936788 -1.5936132029 -0.60438438616 -1.3972925988 -0.78899967445 -0.65636385754 -0.77989811148 0.2942173272 -0.55127370562 
1.0546242952 -0.18764414441 1.3627742331 0.15604720181 1.2052636694 0.33777341815 0.78277039781 0.30820916115 0.36359742443 
0.13966456725 0.12365834142 -0.015566188423 0.073056032048 -0.016554249673 0.10489568569 0.17745710429 0.11045699727 0.4773402102 
0.062227931716 0.71520138241 0.0012739513443 0.74775947801 -0.04034038777 0.6079809816 -0.062742244332 0.40303737459 -0.070569379385 
0.23771476034 -0.05914859849 0.11116168293 -0.030433446619 0.013667738739 1 -0 -0.057777234949 0.16594620968 
-1.3323902562 0.19441241541 -2.3050349618 0.028456359064 -2.5276164098 -0.27352084572 -1.851480095 -0.56841504009 -0.51505700212 
-0.70702493028 0.95898730607 -0.6159840642 2.0055820792 -0.33672277395 2.2733345111 0.00010193788729 1.764471335 0.24935264089 
0.7925863336 0.33203899852 -0.210010719 0.27589973948 -0.91536244347 0.19081214946 -1.222240227 0.19311150561 -1.2184361465 
0.32393922463 -1.0503981261 0.51714058702 -0.81478810825 0.63621342121 -0.53726929517 0.55297919992 -0.23865466484 0.1683539913 
-0.087079742677 0.084520986816 -0.065556921943 0.053001989637 -0.03779041085 0.019812328789 -0.011250396997 -0.0018490072506 1 
-0 -0.39095801635 0.39128612811 -1.8804905713 0.59501543039 -2.8718385874 0.51806926802 -2.9069669263 0.20643349801 
-1.9011176388 -0.1825765408 -0.21125100501 -0.46405686206 1.5063642478 -0.51921001679 2.5858059122 -0.34915571181 2.6471845478 
-0.062491387435 1.7523588833 0.19262937539 0.34560521667 0.31141424905 -0.9868729741 0.28383735889 -1.830219283 0.1942469494 
-2.0994179195 0.15296273884 -1.9717562404 0.21549287393 -1.6552396726 0.3326480994 -1.2632285219 0.39239621872 -0.82104683425 
0.2883074645 -0.27842459451 -0.051207421604 0.011313874891 -0.04843851044 1 -0 -0.378774845 0.58165873425 
-1.8263129059 0.93720135618 -2.7324403533 0.94555656128 -2.6526356788 0.64269307739 -1.5427174806 0.19562414278 0.18471924247 
-0.18564829916 1.8245231367 -0.35083924199 2.6935123079 -0.273932536 2.4443732088 -0.049587493711 1.2236232526 0.17092621279 
-0.40573074431 0.26509787464 -1.7401285085 0.19865476127 -2.2699575255 0.025712873928 -2.1303386987 -0.090766870679 -1.7242302943 
-0.083439726965 -1.3778058172 0.01899085012 -1.0484061823 0.082330603452 -0.68213785895 0.053659817835 -0.33708957133 -0.005582113362 
-0.06504527377 -0.043202543809 0.01233701805 -0.0050854258051 1 -0 -0.057358548902 0.66535803732 -1.2436768021 
1.0894568054 -1.9974376648 1.1404453496 -1.9028308437 0.8506499841 -0.9206590726 0.390790844 0.55505661266 -0.020410263271 
1.8590483308 -0.22284767711 2.366289925 -0.18353563327 1.8015154319 0.0044980444202 0.38946580855 0.18616114182 -1.2347274331 
0.23195799001 -2.3129248052 0.10023482618 -2.307919822 -0.155349373 -0.91366098196 -0.52981792662 -0.39806621713 -0.37569757074 
-0.36223422806 -0.25939789407 -0.28001059088 -0.18527050285 -0.18687370005 -0.12033024649 -0.090563962185 -0.070223660911 -0.024690600957 
-0.030394987417 0.00052372057732 -0.007565699964 1 -0 0.44633539142 0.60930957841 -0.36330414814 0.99004082984 
-0.95827056369 1.0201962677 -0.95343408784 0.73670391077 -0.27538228955 0.30813968787 0.76658642887 -0.055635354405 1.6158730613 
-0.20816007124 1.7513532384 -0.13123074789 0.97470728768 0.070624867558 -0.45075197125 0.23780990707 -1.8907671993 0.24489103487 
-2.6228426493 0.062904303876 -2.1578357841 -0.23920482459 -0.48490362368 -0.49390598078 1 -0 0.9656073397 
0.43366991072 0.51909100118 0.67458720028 0.026936024882 0.62786369155 -0.14493970625 0.34211079031 0.14515153494 -0.020778427022 
0.71629139762 -0.27404523326 1.1547256908 -0.30396572256 1.050240895 -0.12468081332 0.25233512416 0.13758476001 -0.99850319364 
0.31905022496 -2.147446032 0.30829042019 -2.5829252433 0.10202183321 -1.9586845967 -0.19391795814 -0.46523731274 -0.4106849091 
1 -0 1.3537943066 0.20477598298 1.149074305 0.26343643881 0.66263191385 0.11630576384 0.26151751074 
-0.17301292658 0.17764706096 -0.45168009665 0.37314078891 -0.56335700593 0.57428023239 -0.43694403201 0.45476436569 -0.12790243276 
-0.13840298821 0.21125672843 -1.0510643181 0.41445748283 -1.8667706901 0.39205043603 -2.1197368542 0.17621320101 -1.5706891928 
-0.10661012588 -0.37306066227 -0.31854275816 1 -0 1.531107778 0.0091034134037 1.3955421376 -0.08645178204 
0.81299873896 -0.31483227421 0.17322240145 -0.59890224803 -0.19576278455 -0.79432535234 -0.20155673564 -0.77357705559 -0.0092724739466 
-0.50651119335 0.092618537066 -0.088545667485 -0.10358117994 0.30304189523 -0.57599142467 0.50250527817 -1.0718118499 0.44657362987 
-1.2589993811 0.209912255 -0.9456142475 -0.042999255228 -0.22662600523 -0.19416358284 1 -0 1.5027917142 
-0.08073691688 1.2807376295 -0.24439125046 0.53348953279 -0.50178555603 -0.31171901943 -0.76737519904 -0.84144870819 -0.90115724934 
-0.86568307521 -0.7937623361 -0.48653576694 -0.4433261939 -0.0012194184626 0.025219099087 0.29226824235 0.41560314705 0.26824789494 
0.56349702351 0.026258829722 0.43054255697 -0.19969542214 0.13426403859 -0.21054638703 -0.10177612867 -0.016831539554 -0.064581590441 
1 -0 1.3442932127 -0.033470650478 0.95103550248 -0.15653007832 0.028998841792 -0.38258227928 -0.95451501188 
-0.62374169511 -1.52520536 -0.73614678828 -1.4379153208 -0.61056852777 -0.77674338913 -0.25288242513 0.12081731791 0.19831731771 
0.85929273506 0.53442992116 1.1850103719 0.58951513411 1.0837338035 0.340289828 0.736961543 -0.065162633802 0.38037251005 
-0.37026318223 0.20777748214 -0.25139873199 0.080267217115 -0.24959062418 -0.024461903632 -0.22220402507 -0.10716879808 -0.14638381211 
-0.15516831535 -0.07184673106 -0.14396193359 -0.031924492078 -0.027180528246 -0.044610769651 1 -0 1.1616608596 
0.13136389595 0.6037809209 0.13733618316 -0.4412309954 -0.017578408434 -1.4766360748 -0.24705499013 -2.0005995558 -0.39148795519 
-1.7557184953 -0.31960766148 -0.84203941479 -0.021381324645 0.35381382959 0.3674044799 1.3621128276 0.62988685752 1.8508281216 
0.59000610717 1.7510680281 0.2226527142 1.2369683497 -0.31500127953 0.59590925197 -0.75464329628 0.051023906163 -0.93730047829 
-0.30487164441 -0.83184710689 -0.4913737506 -0.53272764867 -0.55703629252 -0.1514378789 -0.54353048664 0.15339714727 -0.4586649016 
0.24663473187 -0.25180313478 0.029884189671 -0.10038262231 -0.10167511817 0.0046094550254 -0.18568500081 0.088574007856 -0.23757384341 
0.12830670679 -0.22161344622 0.11323371245 -0.13867222329 0.052882158357 -0.013426797765 1 -0 1.0442576131 
0.35528093385 0.4012785667 0.52681015035 -0.67252842815 0.44324853074 -1.6711163737 0.18970781269 -2.1009713364 -0.044308825124 
-1.7292864337 -0.083231547811 -0.6913745168 0.12048700071 0.5890817401 0.4465275933 1.6138002444 0.66891184221 2.0398800094 
0.58795953457 1.8103716895 0.15635126437 1.1327323455 -0.4771729038 0.334687457 -1.04487006 -0.30627339401 -1.299250352 
-0.66778890988 -1.1365938125 -0.77965141657 -0.63070617588 -0.74934802671 0.0013563826851 -0.67454999767 0.49221570225 -0.59390265964 
0.63294999417 -0.51615350677 0.40857902825 -0.43147484047 -0.042784360833 -0.33143851726 -0.5080232981 -0.20613705332 -0.81695180199 
-0.070098562843 -0.8541353491 0.046327589306 -0.59879515098 0.11999442933 -0.13838806835 1 -0 1.0288505908 
0.56793035074 0.406356605 0.88208966456 -0.59445485259 0.83001471005 -1.4809133305 0.50030626524 -1.800145715 0.12626433399 
-1.371895435 -0.054091658645 -0.37413241845 0.059574558761 0.75604481986 0.36843645958 1.5451284583 0.63124122804 1.7078939207 
0.60823753014 1.2600730518 0.20969286053 0.47227959133 -0.4386872855 -0.29395098445 -1.052103814 -0.76941452209 -1.3332133449 
-0.88218003594 -1.1259269394 -0.74261359476 -0.49789282284 -0.53832054905 0.28715357283 -0.41448409095 0.88966459211 -0.41207359669 
1.0544246373 -0.48072804653 0.72315424559 -0.53671445825 0.04961220961 -0.51513859198 -0.68569666494 -0.39753823026 -1.1934173578 
-0.21028350156 -1.281191953 -0.0055557158912 -0.91456578809 0.16466962355 -0.2256932149 1 -0 1.0886872717 
0.7167838875 0.56386830579 1.1094563158 -0.29119351164 1.0271259942 -1.0149066404 0.56902290677 -1.2191200876 0.022777870348 
-0.79529685735 -0.30051427465 0.034119573321 -0.24128451809 0.84127881226 0.12197544551 1.2217773069 0.5230331616 1.0009464864 
0.66608230723 0.30970495851 0.40165570291 -0.50250421561 -0.17964642566 -1.0611841632 -0.78875984382 -1.1568745903 -1.0918749695 
-0.83182221157 -0.89178448061 -0.3261399106 -0.23887320218 0.07625172076 0.58702056299 0.20406746351 1.2137408981 0.066755991821 
1.357546082 -0.19545190014 0.95179298211 -0.41919611275 0.16311382814 -0.50352500538 -0.69459533864 -0.43113309943 -1.2937849685 
-0.24621651455 -1.4145455976 -0.019655336534 -1.0180715457 0.18011375726 -0.25439888181 1 -0 1.1506232084 
0.78620304804 0.73330447079 1.1861871776 0.043010537711 1.0183529992 -0.49709436299 0.39907191028 -0.57682445526 -0.32532001403 
-0.17124307705 -0.76943055947 0.45019937342 -0.7171481942 0.8800647433 -0.23332350631 0.80570662976 0.38100804674 0.18853239773 
0.7628328214 -0.70852065025 0.69266116834 -1.4584695017 0.21707845587 -1.6954666889 -0.37863272272 -1.30471639 -0.73113251063 
-0.4769321422 -0.60298365183 0.39720327139 -0.017203801181 0.93346563801 0.75117324599 0.96731063918 1.324320446 0.61212444604 
1.4244931461 0.14434690778 1.0046397578 -0.20775879988 0.24408120624 -0.35500600305 -0.56027370864 -0.32253971474 -1.116781339 
-0.17734989955 -1.2374739386 0.006203644535 -0.89276608789 0.16383961953 -0.21947257962 1 -0 1.1319841368 
0.79809596428 0.75707758956 1.1604096816 0.19310985712 0.88360925945 -0.17080868815 0.10425407461 -0.10453103754 -0.77591301923 
0.32741239415 -1.3053176489 0.80222879287 -1.2214533603 0.9281393245 -0.58472610923 0.48068124003 0.26296116354 -0.44760925823 
0.88921163671 -1.4710625403 1.005355958 -2.0997317378 0.6158644948 -1.9933690078 0.0033721099847 -1.1441458743 -0.43908864702 
0.10912618349 -0.43288134675 1.2406443973 0.030554304341 1.7858664422 0.68915016365 1.5539480117 1.1603637269 0.88642922935 
1.1898113026 0.24847576167 0.80702896506 -0.073064340294 0.21771624988 -0.16176962292 -0.344207962 -0.12914187791 -0.71994942557 
-0.037453437991 -0.79996537353 0.057241284474 -0.57234024408 0.1182991786 -0.13133828288 1 -0 0.98111541988 
0.79518617273 0.5351164577 1.1181610582 0.019615596354 0.75122967906 -0.19711006212 -0.15064713507 0.042607457538 -1.1409144408 
0.58485317195 -1.717336135 1.0448297416 -1.5856859125 1.0288166297 -0.81044351596 0.37537437417 0.22606179113 -0.7213118793 
1.0308132704 -1.7816497196 1.2595052036 -2.2747524288 0.88812830314 -1.8950711782 0.2067450297 -0.7331875622 -0.35665926294 
0.75424481253 -0.4827703167 1.9570240738 -0.13665927197 2.3861592868 0.42573733912 1.8588792468 0.81898130065 0.37149270559 
0.70773370871 -0.11390237897 0.27352081891 -0.047183115579 0.053363051165 0.018690675286 -0.10339719142 0.090650584864 -0.19352791469 
0.12640787384 -0.19918481234 0.11086554531 -0.12876993437 0.050922991342 -0.011747440793 1 -0 0.70446712448 
0.81594290908 0.074535366607 1.1350814041 -0.47762568701 0.73019754543 -0.58823230526 -0.231319087 -0.1575256022 -1.2737609771 
0.5783720854 -1.8639307755 1.1668226272 -1.6918570834 1.1905183668 -0.83174384008 0.51568654571 0.30103438893 -0.60362700142 
1.1710849271 -1.6314625537 1.4016692758 -2.0185834134 0.96152849987 -1.4946107912 0.16245039642 -0.22576714441 -0.52650072616 
1.2526604298 -0.74399112994 2.3133444147 -0.44548976326 2.5359200061 0.095995347689 1.8501881846 0.47821182966 0.41608373802 
0.43728337612 -0.064357723653 0.066219803674 1 -0 0.36889397178 0.87373001402 -0.50614963408 1.236699867 
-1.1541290556 0.85544652216 -1.2024657524 -0.098087309207 -0.59056367463 -1.1363818539 0.37898882868 -1.7155263929 1.1889056001 
-1.5243932845 1.3830889393 -0.64905214757 0.82314767053 0.47440435878 -0.21748480434 1.2914098095 -1.181679288 1.4193014047 
-1.519032687 0.84118165331 -0.98687961486 -0.09805223199 0.2020294718 -0.8871338518 1.4729828689 -1.1270799377 2.1778959281 
-0.73796260202 2.0932639632 -0.1111302557 1.4073097709 0.31269103115 0.64937531475 0.33307351309 0.077494327773 0.15068402341 
-0.028400089583 -0.0030314537602 1 -0 0.078169371799 0.95018185832 -1.0199507447 1.3862803181 -1.7758100528 
1.0721758406 -1.8019716205 0.17741345863 -1.0564367477 -0.81426375474 0.1165567689 -1.3659031617 1.1513923949 -1.1767564329 
1.551993687 -0.34411040188 1.1559844019 0.68906334776 0.22700161586 1.3714533683 -0.68190904075 1.3372711048 -1.027763953 
0.59890543472 -0.58207886941 -0.46331451048 0.42652193035 -1.3056132866 1.4156053661 -1.5056056167 1.7527652861 -0.97353255165 
0.91165712729 0.1627905568 0.30931004469 0.37307148254 0.12235438353 0.20791251485 0.01789844346 0.085093621807 -0.0096207436683 
0.013872053991 1 -0 -0.066688197749 1.0055621299 -1.2838722693 1.50528343 -2.1116806917 1.2657241224 
-2.1496483496 0.45010266152 -1.3535559462 -0.4730424883 -0.07687398423 -0.98686278086 1.0955923611 -0.80887352356 1.6420565486 
-0.04550302434 1.3725606182 0.86540488671 0.52611611438 1.3927669926 -0.36188465221 1.2018593506 -0.75655442856 0.33870691061 
-0.42697160376 -0.78969964075 0.41058149382 -1.6273012389 1.1943231729 -1.7571468987 1.3158303028 -1.1050942872 0.53011565374 
0.0025771518863 1 -0 -0.0070835722286 1.0004682809 -1.1913075009 1.5154809085 -2.0263123366 1.3213727178 
-2.1054877271 0.57463244074 -1.3621941444 -0.27790394179 -0.12283287436 -0.74757480643 1.045445813 -0.57460292593 1.6196635673 
0.12774158355 1.3898494555 0.93494561271 0.56586197518 1.3456242104 -0.3404020292 1.0605303624 -0.79905344917 0.15372117815 
-0.5609945792 -0.95789382813 0.19297339977 -1.7307323039 0.94009054936 -1.7800517193 1.1000828623 -1.0847509886 0.46666431091 
-0.049092099779 1 -0 0.24963598049 0.91776259431 -0.7548986968 1.381344185 -1.53442262 1.1841476656 
-1.6832034393 0.47789602874 -1.0931612636 -0.31466256273 -0.028711496998 -0.73673106437 0.99687071256 -0.55288273581 1.4846402266 
0.11873826107 1.2140120963 0.87122206518 0.36311998938 1.2357008233 -0.58480147542 0.94542251816 -1.1035419665 0.091170234386 
-0.91464419431 -0.91880576783 -0.14680965961 -1.5743365357 0.72748884525 -1.5386334152 1.1516327814 -0.83737724833 0.61545493984 
0.21283375518 0.16823942079 0.51954098763 0.047558289608 0.39712285729 -0.089500714915 0.092633142062 1 -0 
0.63232605843 0.77363895035 -0.10252314205 1.1314613392 -0.7955031689 0.88904598496 -1.0441907313 0.19557920196 -0.68194383438 