# vtk DataFile Version 4.2
vtk output
ASCII
DATASET UNSTRUCTURED_GRID
POINTS 1516 double
0 0 0 0.07853981634 0 0 0.15707963268 0 0 
0.23561944902 0 0 0.31415926536 0 0 0.3926990817 0 0 
0.47123889804 0 0 0.54977871438 0 0 0.62831853072 0 0 
0.70685834706 0 0 0.7853981634 0 0 0.86393797974 0 0 
0.94247779608 0 0 1.0210176124 0 0 1.0995574288 0 0 
1.1780972451 0 0 1.2566370614 0 0 1.3351768778 0 0 
1.4137166941 0 0 1.4922565105 0 0 1.5707963268 0 0 
1.6493361431 0 0 1.7278759595 0 0 1.8064157758 0 0 
1.8849555922 0 0 1.9634954085 0 0 2.0420352248 0 0 
2.1205750412 0 0 2.1991148575 0 0 2.2776546739 0 0 
2.3561944902 0 0 2.4347343065 0 0 2.5132741229 0 0 
2.5918139392 0 0 2.6703537556 0 0 2.7488935719 0 0 
2.8274333882 0 0 2.9059732046 0 0 2.9845130209 0 0 
3.0630528373 0 0 3.1415926536 0 0 0 0.07853981634 0 
0.07853981634 0.07853981634 0 0.15707963268 0.07853981634 0 0.23561944902 0.07853981634 0 
0.31415926536 0.07853981634 0 0.3926990817 0.07853981634 0 0.47123889804 0.07853981634 0 
0.54977871438 0.07853981634 0 0.62831853072 0.07853981634 0 0.70685834706 0.07853981634 0 
0.7853981634 0.07853981634 0 0.86393797974 0.07853981634 0 0.94247779608 0.07853981634 0 
1.0210176124 0.07853981634 0 1.0995574288 0.07853981634 0 1.1780972451 0.07853981634 0 
1.2566370614 0.07853981634 0 1.3351768778 0.07853981634 0 1.4137166941 0.07853981634 0 
1.4922565105 0.07853981634 0 1.5707963268 0.07853981634 0 1.6493361431 0.07853981634 0 
1.7278759595 0.07853981634 0 1.8064157758 0.07853981634 0 1.8849555922 0.07853981634 0 
1.9634954085 0.07853981634 0 2.0420352248 0.07853981634 0 2.1205750412 0.07853981634 0 
2.1991148575 0.07853981634 0 2.2776546739 0.07853981634 0 2.3561944902 0.07853981634 0 
2.4347343065 0.07853981634 0 2.5132741229 0.07853981634 0 2.5918139392 0.07853981634 0 
2.6703537556 0.07853981634 0 2.7488935719 0.07853981634 0 2.8274333882 0.07853981634 0 
2.9059732046 0.07853981634 0 2.9845130209 0.07853981634 0 3.0630528373 0.07853981634 0 
3.1415926536 0.07853981634 0 0 0.15707963268 0 0.07853981634 0.15707963268 0 
0.15707963268 0.15707963268 0 0.23561944902 0.15707963268 0 0.31415926536 0.15707963268 0 
0.3926990817 0.15707963268 0 0.47123889804 0.15707963268 0 0.54977871438 0.15707963268 0 
0.62831853072 0.15707963268 0 0.70685834706 0.15707963268 0 0.7853981634 0.15707963268 0 
0.86393797974 0.15707963268 0 0.94247779608 0.15707963268 0 1.0210176124 0.15707963268 0 
1.0995574288 0.15707963268 0 1.1780972451 0.15707963268 0 1.2566370614 0.15707963268 0 
1.3351768778 0.15707963268 0 1.4137166941 0.15707963268 0 1.4922565105 0.15707963268 0 
1.5707963268 0.15707963268 0 1.6493361431 0.15707963268 0 1.7278759595 0.15707963268 0 
1.8064157758 0.15707963268 0 1.8849555922 0.15707963268 0 1.9634954085 0.15707963268 0 
2.0420352248 0.15707963268 0 2.1205750412 0.15707963268 0 2.1991148575 0.15707963268 0 
2.2776546739 0.15707963268 0 2.3561944902 0.15707963268 0 2.4347343065 0.15707963268 0 
2.5132741229 0.15707963268 0 2.5918139392 0.15707963268 0 2.6703537556 0.15707963268 0 
2.7488935719 0.15707963268 0 2.8274333882 0.15707963268 0 2.9059732046 0.15707963268 0 
2.9845130209 0.15707963268 0 3.0630528373 0.15707963268 0 3.1415926536 0.15707963268 0 
0 0.23561944902 0 0.07853981634 0.23561944902 0 0.15707963268 0.23561944902 0 
0.23561944902 0.23561944902 0 0.31415926536 0.23561944902 0 0.3926990817 0.23561944902 0 
0.47123889804 0.23561944902 0 0.54977871438 0.23561944902 0 0.62831853072 0.23561944902 0 
0.70685834706 0.23561944902 0 0.7853981634 0.23561944902 0 0.86393797974 0.23561944902 0 
0.94247779608 0.23561944902 0 1.0210176124 0.23561944902 0 1.0995574288 0.23561944902 0 
1.1780972451 0.23561944902 0 1.2566370614 0.23561944902 0 1.3351768778 0.23561944902 0 
1.4137166941 0.23561944902 0 1.4922565105 0.23561944902 0 1.5707963268 0.23561944902 0 
1.6493361431 0.23561944902 0 1.7278759595 0.23561944902 0 1.8064157758 0.23561944902 0 
1.8849555922 0.23561944902 0 1.9634954085 0.23561944902 0 2.0420352248 0.23561944902 0 
2.1205750412 0.23561944902 0 2.1991148575 0.23561944902 0 2.2776546739 0.23561944902 0 
2.3561944902 0.23561944902 0 2.4347343065 0.23561944902 0 2.5132741229 0.23561944902 0 
2.5918139392 0.23561944902 0 2.6703537556 0.23561944902 0 2.7488935719 0.23561944902 0 
2.8274333882 0.23561944902 0 2.9059732046 0.23561944902 0 2.9845130209 0.23561944902 0 
3.0630528373 0.23561944902 0 3.1415926536 0.23561944902 0 0 0.31415926536 0 
0.07853981634 0.31415926536 0 0.15707963268 0.31415926536 0 0.23561944902 0.31415926536 0 
0.31415926536 0.31415926536 0 0.3926990817 0.31415926536 0 0.47123889804 0.31415926536 0 
0.54977871438 0.31415926536 0 0.62831853072 0.31415926536 0 0.70685834706 0.31415926536 0 
0.7853981634 0.31415926536 0 0.86393797974 0.31415926536 0 0.94247779608 0.31415926536 0 
1.0210176124 0.31415926536 0 1.0995574288 0.31415926536 0 1.1780972451 0.31415926536 0 
1.2566370614 0.31415926536 0 1.3351768778 0.31415926536 0 1.4137166941 0.31415926536 0 
1.4922565105 0.31415926536 0 1.5707963268 0.31415926536 0 1.6493361431 0.31415926536 0 
1.7278759595 0.31415926536 0 1.8064157758 0.31415926536 0 1.8849555922 0.31415926536 0 
1.9634954085 0.31415926536 0 2.0420352248 0.31415926536 0 2.1205750412 0.31415926536 0 
2.1991148575 0.31415926536 0 2.2776546739 0.31415926536 0 2.3561944902 0.31415926536 0 
2.4347343065 0.31415926536 0 2.5132741229 0.31415926536 0 2.5918139392 0.31415926536 0 
2.6703537556 0.31415926536 0 2.7488935719 0.31415926536 0 2.8274333882 0.31415926536 0 
2.9059732046 0.31415926536 0 2.9845130209 0.31415926536 0 3.0630528373 0.31415926536 0 
3.1415926536 0.31415926536 0 0 0.3926990817 0 0.07853981634 0.3926990817 0 
0.15707963268 0.3926990817 0 0.23561944902 0.3926990817 0 0.31415926536 0.3926990817 0 
0.3926990817 0.3926990817 0 0.47123889804 0.3926990817 0 0.54977871438 0.3926990817 0 
0.62831853072 0.3926990817 0 0.70685834706 0.3926990817 0 0.7853981634 0.3926990817 0 
0.86393797974 0.3926990817 0 0.94247779608 0.3926990817 0 1.0210176124 0.3926990817 0 
1.0995574288 0.3926990817 0 1.1780972451 0.3926990817 0 1.2566370614 0.3926990817 0 
1.3351768778 0.3926990817 0 1.4137166941 0.3926990817 0 1.4922565105 0.3926990817 0 
1.5707963268 0.3926990817 0 1.6493361431 0.3926990817 0 1.7278759595 0.3926990817 0 
1.8064157758 0.3926990817 0 1.8849555922 0.3926990817 0 1.9634954085 0.3926990817 0 
2.0420352248 0.3926990817 0 2.1205750412 0.3926990817 0 2.1991148575 0.3926990817 0 
2.2776546739 0.3926990817 0 2.3561944902 0.3926990817 0 2.4347343065 0.3926990817 0 
2.5132741229 0.3926990817 0 2.5918139392 0.3926990817 0 2.6703537556 0.3926990817 0 
2.7488935719 0.3926990817 0 2.9845130209 0.3926990817 0 3.0630528373 0.3926990817 0 
3.1415926536 0.3926990817 0 0 0.47123889804 0 0.07853981634 0.47123889804 0 
0.15707963268 0.47123889804 0 0.23561944902 0.47123889804 0 0.31415926536 0.47123889804 0 
0.3926990817 0.47123889804 0 0.47123889804 0.47123889804 0 0.54977871438 0.47123889804 0 
0.62831853072 0.47123889804 0 0.70685834706 0.47123889804 0 0.7853981634 0.47123889804 0 
0.86393797974 0.47123889804 0 0.94247779608 0.47123889804 0 1.0210176124 0.47123889804 0 
1.0995574288 0.47123889804 0 1.1780972451 0.47123889804 0 1.2566370614 0.47123889804 0 
1.3351768778 0.47123889804 0 1.4137166941 0.47123889804 0 1.4922565105 0.47123889804 0 
1.5707963268 0.47123889804 0 1.6493361431 0.47123889804 0 1.7278759595 0.47123889804 0 
1.8064157758 0.47123889804 0 1.8849555922 0.47123889804 0 1.9634954085 0.47123889804 0 
2.0420352248 0.47123889804 0 2.1205750412 0.47123889804 0 2.1991148575 0.47123889804 0 
2.2776546739 0.47123889804 0 2.3561944902 0.47123889804 0 2.4347343065 0.47123889804 0 
2.5132741229 0.47123889804 0 2.5918139392 0.47123889804 0 0 0.54977871438 0 
0.07853981634 0.54977871438 0 0.15707963268 0.54977871438 0 0.23561944902 0.54977871438 0 
0.31415926536 0.54977871438 0 0.3926990817 0.54977871438 0 0.47123889804 0.54977871438 0 
0.54977871438 0.54977871438 0 0.62831853072 0.54977871438 0 0.70685834706 0.54977871438 0 
0.7853981634 0.54977871438 0 0.86393797974 0.54977871438 0 0.94247779608 0.54977871438 0 
1.0210176124 0.54977871438 0 1.0995574288 0.54977871438 0 1.1780972451 0.54977871438 0 
1.2566370614 0.54977871438 0 1.3351768778 0.54977871438 0 1.4137166941 0.54977871438 0 
1.4922565105 0.54977871438 0 1.5707963268 0.54977871438 0 1.6493361431 0.54977871438 0 
1.7278759595 0.54977871438 0 1.8064157758 0.54977871438 0 1.8849555922 0.54977871438 0 
1.9634954085 0.54977871438 0 2.0420352248 0.54977871438 0 2.1205750412 0.54977871438 0 
2.1991148575 0.54977871438 0 2.2776546739 0.54977871438 0 2.3561944902 0.54977871438 0 
2.4347343065 0.54977871438 0 2.5132741229 0.54977871438 0 2.5918139392 0.54977871438 0 
0 0.62831853072 0 0.07853981634 0.62831853072 0 0.15707963268 0.62831853072 0 
0.23561944902 0.62831853072 0 0.31415926536 0.62831853072 0 0.3926990817 0.62831853072 0 
0.47123889804 0.62831853072 0 0.54977871438 0.62831853072 0 0.62831853072 0.62831853072 0 
0.70685834706 0.62831853072 0 0.7853981634 0.62831853072 0 0.86393797974 0.62831853072 0 
0.94247779608 0.62831853072 0 1.0210176124 0.62831853072 0 1.0995574288 0.62831853072 0 
1.1780972451 0.62831853072 0 1.2566370614 0.62831853072 0 1.3351768778 0.62831853072 0 
1.4137166941 0.62831853072 0 1.4922565105 0.62831853072 0 1.5707963268 0.62831853072 0 
1.6493361431 0.62831853072 0 1.7278759595 0.62831853072 0 1.8064157758 0.62831853072 0 
1.8849555922 0.62831853072 0 1.9634954085 0.62831853072 0 2.0420352248 0.62831853072 0 
2.1205750412 0.62831853072 0 2.1991148575 0.62831853072 0 2.2776546739 0.62831853072 0 
2.3561944902 0.62831853072 0 2.4347343065 0.62831853072 0 2.5132741229 0.62831853072 0 
0 0.70685834706 0 0.07853981634 0.70685834706 0 0.15707963268 0.70685834706 0 
0.23561944902 0.70685834706 0 0.31415926536 0.70685834706 0 0.3926990817 0.70685834706 0 
[...]
POINT_DATA 1516
FIELD FieldData 1
SOLUTION_COMPLEX 2 1516 double
1 -0 0.86247197284 -0.52661579094 0.53559647893 -0.94960009341 0.084865423535 -1.1868833023 -0.39739581511 
-1.1949398768 -0.81162805758 -0.97759132428 -1.072175545 -0.58478048582 -1.125440953 -0.10161180387 -0.96118355049 0.369969484 
-0.61455970481 0.73291962116 -0.15849077575 0.91560099529 0.31198485324 0.88667117 0.70000539874 0.66119817052 0.92746643633 
0.29673924949 0.95147821901 -0.11971723252 0.77318332978 -0.49108312661 0.43706634457 -0.73156801382 0.020934228027 -0.78550171754 
-0.38124747384 -0.63950806499 -0.67994289367 -0.3254019207 -0.80960526177 0.086806803211 -0.74297934828 0.50427513508 -0.49705418585 
0.8317154895 -0.12937525733 0.99238039077 0.27449318487 0.94507978094 0.61965078742 0.6935196455 0.82264788362 0.28590531013 
0.82986416727 -0.1951468073 0.62946124183 -0.65025043272 0.2542457797 -0.98466789216 -0.22529157671 -1.1288867597 -0.71635420071 
-1.0538126608 -1.1242687782 -0.77704378652 -1.3731994506 -0.35846586172 -1.4219545092 0.11420401074 -1.2707308834 0.54674544956 
-0.95719131296 0.860863202 -0.54392134842 1.0109661415 -0.10208620132 0.99002965263 0.30318405119 0.82437846356 0.62240098367 
0.56138879058 1 -0 0.86482501985 -0.52194152466 0.54022797997 -0.94057263725 0.091622103688 -1.1741259731 
-0.38875267277 -1.1793407138 -0.80142944934 -0.9602474802 -1.0608483399 -0.56692604295 -1.113504783 -0.084531977287 -0.94923804152 
0.38503295664 -0.60326019631 0.74486519323 -0.14851224271 0.92355785023 0.3199941439 0.89007452629 0.70547715162 0.65984065531 
0.92996762616 0.29079133303 0.95076251774 -0.12972178967 0.76923243313 -0.50429694339 0.43011544001 -0.74691066124 0.011477102663 
-0.80176287631 -0.39247625723 -0.65546177296 -0.6920089241 -0.33991873255 -0.82143587576 0.074662768335 -0.75344093532 0.49517526729 
-0.50503807538 0.82602932884 -0.13388344331 0.99017478533 0.274272203 0.94615290301 0.62428619294 0.69746430931 0.83244106672 
0.29219339294 0.84486428173 -0.18706863202 0.64953300253 -0.64086477618 0.27919956997 -0.97429929691 -0.19550159637 -1.1176550662 
-0.68143881912 -1.0417422035 -1.0835840056 -0.76439676072 -1.3261373279 -0.34632131278 -1.3688849183 0.1233735018 -1.2141276089 
0.54886783044 -0.90225846693 0.85150723551 -0.49771884701 0.98765925737 -0.071478401223 0.95455012591 0.31393624772 0.78232867257 
0.61272474965 0.52026024686 1 -0 0.87144824725 -0.50861536965 0.55327088848 -0.91483233143 0.11066481362 
-1.1377430045 -0.36436776241 -1.1348411465 -0.77261998561 -0.91075580909 -1.0288054494 -0.51596147882 -1.0796873484 -0.035765002568 
-0.91533900025 0.42805050097 -0.5711392475 0.77897748311 -0.12009391321 0.94626609921 0.34285280351 0.89975529146 0.72113965759 
0.65589588765 0.93717783019 0.27370938435 0.94879392054 -0.15840644347 0.75800891848 -0.54214606566 0.41028662515 -0.79081474631 
-0.015564890033 -0.84823970151 -0.42464623063 -0.70098752103 -0.72664491625 -0.38125316698 -0.85547548176 0.040195200792 -0.78364347888 
0.46948061651 -0.52823221964 0.81013728028 -0.14721523751 0.98423809852 0.2731185046 0.94954779137 0.6369231165 0.70897491127 
0.85969725877 0.31025611026 0.8868172125 -0.16408835259 0.70568690754 -0.61439340869 0.34884147553 -0.94530956755 -0.11274841758 
-1.0864589674 -0.58486462539 -1.0080518323 -0.97110055104 -0.72839262154 -1.1951551382 -0.31030053928 -1.2189981386 0.15286313335 
-1.0514397967 0.55999910634 -0.74175557787 0.82858137401 -0.36182620938 0.92122431876 0.018249950554 0.84910693227 0.34411153116 
0.65773837853 0.58270260752 0.39885680176 1 -0 0.88110829562 -0.48862695868 0.57231531234 -0.87621192603 
0.13851940099 -1.0831286531 -0.32861474517 -1.068002136 -0.73026051649 -0.83636657309 -0.98154229686 -0.43930312015 -1.0296357248 
0.037635860961 -0.86498480615 0.49282710356 -0.523244391 0.83034441381 -0.077546381288 0.98042049944 0.37723803784 0.91421643756 
0.74485436457 0.64974235344 0.94826712686 0.24767988929 0.94608908519 -0.20196921561 0.74131803289 -0.59951134934 0.38051656715 
-0.8572215521 -0.05637607638 -0.91835938144 -0.47339896593 -0.76943842443 -0.77935133885 -0.44310643888 -0.90752624541 -0.011020796958 
-0.83014673001 0.43173639175 -0.56439379448 0.7873328164 -0.16872222996 0.9764804164 0.26975229474 0.95574528478 0.65409185521 
0.7271275997 0.89855824092 0.33783384004 0.94730545625 -0.12972128671 0.78673065684 -0.57554386394 0.44883922169 -0.90356281694 
0.0048721225572 -1.0424162002 -0.4495134086 -0.96065630664 -0.8141407115 -0.6750527727 -1.0100438337 -0.25267264157 -1.0004714266 
0.20752635684 -0.8025600289 0.59412770221 -0.48716690104 0.81315241398 -0.14072624525 0.81932449001 0.16026068127 0.67425930407 
0.38760898607 0.45065840541 0.52783691706 0.20984016391 1 -0 0.89198523091 -0.46497266906 0.59380385194 
-0.83048283165 0.17005419809 -1.0184039781 -0.28795945738 -0.98869815192 -0.68184057482 -0.74798690672 -0.92720122815 -0.34810121832 
-0.97172782127 0.12507510353 -0.80634380483 0.57006783075 -0.4670842375 0.8916101664 -0.027289769881 1.0210898156 0.41819680109 
0.93125101282 0.77343465457 0.64199409112 0.96200843446 0.21603085647 0.94344502457 -0.25466356624 0.72190183396 -0.6686820809 
0.34526407388 -0.93702882039 -0.10515316837 -1.0022711389 -0.53208622281 -0.85087789843 -0.84323418658 -0.51608943572 -0.97111052135 
-0.070703971153 -0.88757153689 0.38866290922 -0.6098991182 0.76245234626 -0.19712551111 0.96967075737 0.26262023959 0.96539759536 
0.67104032089 0.75052080658 0.94082352676 0.37160714506 1.0145083324 -0.089053137835 0.87703842959 -0.53106676718 0.55937263373 
-0.85742377809 0.13254462245 -0.99542542289 -0.30666137166 -0.91278861452 -0.655285714 -0.61944134804 -0.81727661932 -0.17414955444 
-0.75887613615 0.28763748676 -0.50654277609 0.6695889622 -0.13925285049 0.85193873036 0.15864190612 0.73720352712 0.35729857921 
0.35037963459 0.41491587959 0.17981403402 0.44759430129 -0.005086805302 1 -0 0.90198508721 -0.44122521612 
0.61364052863 -0.78452517098 0.19935374475 -0.95324673089 -0.24986697955 -0.90869029009 -0.63602367843 -0.65859827621 -0.87522153938 
-0.25561302297 -0.91569926892 0.21397306463 -0.74893193868 0.64876017553 -0.41142822256 0.9540887234 0.023159931327 1.062488761 
0.45991958748 0.94832463612 0.80314160059 0.63347356971 0.97697543602 0.18280317774 0.94184006937 -0.30959367806 0.70306583762 
-0.74045964264 0.30990659789 -1.0194260753 -0.15487489733 -1.0883240616 -0.59262495196 -0.93360502692 -0.90985209019 -0.5892014762 
-1.0382094271 -0.12921184216 -0.94912730917 0.34801980001 -0.65996059311 0.74100863751 -0.23032964168 0.96688366356 0.2505686955 
0.97911820255 0.6829736216 0.77743109253 0.97784083607 0.40774415524 1.0758575227 -0.047764907768 0.96015687819 -0.48831448445 
0.66008515949 -0.81599247575 0.24531723209 -0.95624271514 -0.18716438841 -0.87481964611 -0.53299975545 -0.59215079963 -0.70404688198 
-0.11480606496 -0.53545043908 0.47981983852 -0.20782126505 0.70176625645 0.41227289744 -0.11553663704 0.40446955372 -0.047996940644 
0.35400836161 -0.19718439938 1 -0 0.90910239778 -0.42102181663 0.62789727173 -0.74534100836 0.22073287317 
-0.89750062514 -0.22153251012 -0.83993120563 -0.60118954584 -0.58137777103 -0.83477010895 -0.1752731117 -0.87104639232 0.29161177515 
-0.70207437554 0.71780903075 -0.36491070966 1.0090777509 0.066368095883 1.0988849725 0.49663549123 0.96301971096 0.83025072084 
0.62517040154 0.99175619604 0.1522348073 0.94229366907 -0.35966204917 0.68820993195 -0.80546648993 0.27999263128 -1.0934729754 
-0.19825423427 -1.1648084938 -0.64656030356 -1.0059463088 -0.97028149299 -0.65156139682 -1.1002130659 -0.17710922782 -1.0073285876 
0.3172865672 -0.70899620934 0.7281870614 -0.26534291486 0.97085576011 0.23345964481 0.99722283824 0.68627727808 0.80594924926 
1.0023967789 0.4424454341 1.1206586642 -0.011129192663 1.0222760982 -0.45367148594 0.73461966307 -0.78672094446 0.32527675512 
-0.93489193762 -0.1132416307 -0.85751727308 -0.47208089835 -0.56772779332 -0.66579095966 -0.23908890144 1 -0 
0.91177259543 -0.40754532535 0.63350096808 -0.71905436767 0.22972359374 -0.85976679425 -0.20864512638 -0.79284976342 -0.58401254454 
-0.52779907022 -0.81320929061 -0.11874577543 -0.84546547045 0.34699423899 -0.67340103398 0.76767903597 -0.33466594134 1.0491729919 
0.096130677276 1.1254997153 0.52348100226 0.97346755528 0.85159235453 0.61818392323 1.0051378224 0.12822714155 0.94569183331 
-0.39853381287 0.68031658877 -0.85546797906 0.26044024365 -1.1496840781 -0.22875813513 -1.2216953741 -0.6862119808 -1.0580356517 
-1.0162828839 -0.69411699606 -1.1489914704 -0.20670637091 -1.0548546481 0.30237937753 -0.75116883823 0.72787838207 -0.29840222217 
0.98336944539 0.21253247073 1.0194715141 0.67940998306 0.834063585 1.0101518897 0.4723405473 1.142043328 0.016699596144 
1.0546151226 -0.43135415876 0.77344799118 -0.77334791537 0.36385091896 -0.93457369784 -0.083616346119 -0.87956123433 -0.49237447531 
-0.56870708163 -0.69320160682 -0.04455700133 1 -0 0.90915553413 -0.40307343786 0.62878674293 -0.71004294614 
0.22387103479 -0.84618198981 -0.21438874435 -0.77486530426 -0.5883101806 -0.5059909313 -0.81485268408 -0.09424604208 -0.84358210775 
0.37244148781 -0.66761928703 0.79179824267 -0.32521352608 1.0693831628 0.10841086995 1.1392614243 0.53720241803 0.97869553063 
0.86497629764 0.61364883984 1.0162264396 0.11386415218 0.95259518274 -0.42148132429 0.68146122064 -0.88451430455 0.2547859084 
-1.1813839931 -0.24156331244 -1.2521095618 -0.70575976265 -1.0833072543 -1.0414278011 -0.71106255884 -1.1779673333 -0.21331669562 
-1.0854718195 0.30662092548 -0.781069537 0.74192223265 -0.325344759 1.0047892737 0.19039142978 1.044885454 0.66326274632 
0.85970784939 1.0003359489 0.49467503644 1.1378928122 0.032889096844 1.054362176 -0.4233007407 0.77413967536 -0.77510914273 
0.36161504802 -0.95034735101 -0.095137802661 -0.91870432091 -0.49201287036 -0.74171807016 1 -0 0.90130234189 
-0.40866069266 0.6138244546 -0.72032638619 0.20320519447 -0.85955965259 -0.2388465428 -0.78934647479 -0.61435187561 -0.51959185524 
-0.84021258738 -0.1053750456 -0.86617682624 0.36469162186 -0.68576080706 0.78751330047 -0.33777128088 1.0678755802 0.10191639305 
1.1392933749 0.536583117 0.97882886173 0.86943571302 0.61264522155 1.0244841283 0.11104611904 0.96305763907 -0.425991695 
0.69241556161 -0.88973839272 0.26459065785 -1.1856334 -0.23431434982 -1.2533156186 -0.70211966199 -1.0794720441 -1.0420365082 
-0.70074125264 -1.1830526545 -0.196029539 -1.0949059933 0.3301397863 -0.79446874117 0.76970391568 -0.34219413394 1.0338601037 
0.17060629418 1.0717222679 0.64093522962 0.88084795983 0.97564150554 0.50737575166 1.1107225973 0.035710871359 1.0242868716 
-0.43012307213 0.74044388125 -0.78977150702 0.3232212003 -0.96998173752 -0.13557767394 -0.95117900168 -0.54566669062 -0.76093327279 
1 -0 0.8891765861 -0.42399817328 0.59046189177 -0.74929763195 0.17030749462 -0.8990157153 -0.2789100171 
-0.83516299284 -0.65874383713 -0.56726514776 -0.88586313304 -0.15063812079 -0.91003200349 0.32534012278 -0.72502145173 0.75645420222 
-0.37010088468 1.0462388471 0.078232053468 1.1270574309 0.52253614404 0.97510934865 0.86526085347 0.61609699388 1.0296860166 
0.1202827396 0.97649214989 -0.41205595808 0.71241212002 -0.87169839329 0.28909960397 -1.1635928752 -0.20756571307 -1.2270708109 
-0.67547697869 -1.0488301726 -1.0177853876 -0.66589211249 -1.1633094033 -0.15787293332 -1.0815339184 0.36980310954 -0.78901776382 
0.80818549948 -0.34585861102 1.0678295919 0.15701792179 1.0976687303 0.61702523896 0.89569858214 0.94144764601 0.50918852239 
1.0667475419 0.024362428422 0.9715397345 -0.45228375939 0.68046273522 -0.81709280454 0.25830673763 -0.99243945375 -0.20618822272 
-0.94144499855 -0.60108878601 -0.72334806141 1 -0 0.87452428188 -0.44746948942 0.56207395047 -0.79383303855 
0.12995661257 -0.96012904638 -0.32871226584 -0.90689054385 -0.71491267563 -0.64294014355 -0.94494344248 -0.22371189367 -0.96842445516 
0.26055965398 -0.77921641265 0.70425578195 -0.41690418312 1.009222407 0.0414965873 1.1061287938 0.49786041402 0.96972220597 
0.85383250949 0.62466629797 1.0318209836 0.14066766607 0.99162186839 -0.38210574496 0.73912381356 -0.83422207965 0.32522459421 
-1.1202773589 -0.16482302134 -1.1792980247 -0.62937819076 -0.99787639066 -0.9718744381 -0.61320641893 -1.1212149143 -0.10534227626 
-1.0467656832 0.41969401701 -0.76476466858 0.85237014903 -0.33479469723 1.1028858458 0.15291305209 1.1202462738 0.59662630902 
0.9030997889 0.90462053328 0.50003325545 1.0144642669 -0.00072075765393 0.90597631944 -0.48991391765 0.60511038542 -0.8601380366 
0.17771287316 -1.0271055927 -0.28452569826 -0.94532521151 -0.71039353676 -0.55382048527 -0.8973154299 0.089320884831 1 
-0 0.85961179891 -0.4763927426 0.53305474277 -0.8487611326 0.088406219113 -1.0356075923 -0.38052030045 -0.99563245053 
-0.77411368427 -0.73673767129 -1.0082218558 -0.3144151044 -1.0321838501 0.18014543258 -0.83977358736 0.63968015636 -0.47069888271 
0.96399248181 -0.0023128718831 1.0816338967 0.46671485971 0.96545334681 0.83730048028 0.63865417152 1.0309733319 0.17003157351 
1.0065482976 -0.34061451232 0.76888739879 -0.78378437516 0.36787933213 -1.0637459245 -0.11214946207 -1.1191352741 -0.57033846055 
-0.93626501841 -0.91069814501 -0.55226792394 -1.0624574102 -0.047374802115 -0.99502158655 0.47205023454 -0.72436120761 0.89611381022 
-0.30948172255 1.1348221269 0.16025876517 1.1373384694 0.58426560556 0.9029621959 0.87217165064 0.48149519074 0.96307129 
-0.037052470632 0.83843673129 -0.54114088976 0.52597805811 -0.92053893144 0.093773849492 -1.0881109061 -0.36537432783 -0.99205385816 
-0.73869324721 -0.64049365458 -0.93028007886 -0.20575072956 1 -0 0.84687227609 -0.5074110574 0.50813147485 
-0.90761755364 0.05240709167 -1.1163572868 -0.42594677332 -1.0903312534 -0.82680498999 -0.83643703518 -1.0655521111 -0.41023368545 
-1.0911466488 0.096032819633 -0.89710250404 0.57327446603 -0.523026495 0.91901771616 -0.046363512114 1.0594362551 0.43390923984 
0.96522768154 0.81817701424 0.65792025138 1.0272266906 0.20524729918 1.0189514461 -0.29342782764 0.79716425311 -0.72851714358 
0.41064572347 -1.0038551656 -0.057365129696 -1.0575122476 -0.50698975059 -0.87529905434 -0.84303210168 -0.4940473298 -0.99525168229 
0.0060613753964 -0.93326210325 0.51850236472 -0.67288066288 0.93313179987 -0.27258310822 1.1597812301 0.17916701039 1.147683766 
0.58299597426 0.89658057042 0.85002095746 0.45713639654 0.9210031236 -0.079411617676 0.77917765361 -0.60012122562 0.45408288616 
-0.99364715975 0.015647286435 -1.1728683009 -0.43862574267 -1.0945585626 -0.80399374297 -0.77613840854 -1.0037516201 -0.22854461351 
-0.84928162533 0.41636397357 -0.5129281449 0.75194905095 0.30378922068 0.036926600346 0.27556892084 0.077960053194 0.27888099178 
-0.037519438986 1 -0 0.8385162755 -0.53697290107 0.49160830908 -0.96357250055 0.028128008931 -1.1927926506 
-0.45728945986 -1.1793723438 -0.86416965804 -0.92926290412 -1.1074896762 -0.49816931546 -1.1357728367 0.020511917193 -0.94211782663 
0.51576796966 -0.5657949128 0.88275448774 -0.084052237613 1.0451950396 0.40413576164 0.97159986668 0.7989247607 0.68183495352 
1.0206241273 0.24264163161 1.0264128765 -0.24692413979 0.81919204584 -0.67700227998 0.4466963556 -0.95076742636 -0.0089318620886 
-1.0054735867 -0.44886673788 -0.82617851468 -0.77882345694 -0.44918820702 -0.92924029135 0.045536546444 -0.87010122945 0.55140418953 
-0.61723195024 0.95801659591 -0.22872894295 1.1749157115 0.20770511065 1.1511707618 0.59379951676 0.88660756259 0.84204384033 
0.43226410515 0.89473638588 -0.12004361093 0.73668228369 -0.65684523648 0.39885093348 -1.0668097169 -0.047626890192 -1.2644817961 
-0.50606157813 -1.2092431486 -0.87493786012 -0.90955828611 -1.0570574668 -0.43385000597 -1.0170690722 0.077918470691 -0.78908387666 
0.51364068765 -0.43077504563 0.69684347476 -0.12307518974 0.62883463303 0.13944290646 0.3478744214 0.22296201171 0.22242537354 
0.28841630994 0.10252404863 1 -0 0.83616868113 -0.56183095518 0.48666060293 -1.0103930151 0.020147189606 
-1.2561942592 -0.46878535958 -1.2522407752 -0.8795436177 -1.0037252113 -1.1268111025 -0.56663437474 -1.1586680899 -0.035592022073 
-0.9676744607 0.47645123834 -0.59254057054 0.86233263213 -0.1100182311 1.0434420877 0.38126857859 0.98627891859 0.78161225121 
0.70927629952 1.0112015738 0.27845634645 1.0268248632 -0.20712876158 0.83074249307 -0.63702768007 0.46984966139 -0.9134382436 
0.025326650573 -0.97250330242 -0.40499216597 -0.79827606684 -0.72774308687 -0.42634933479 -0.87411885787 0.063640839047 -0.81460820423 
0.56504079999 -0.56522998364 0.96709334123 -0.18392800444 1.1788329861 0.2420960414 1.1488383569 0.61538861872 0.87659575674 
0.84950391763 0.41301276453 0.88794409713 -0.15007288811 0.71669938394 -0.69921451766 0.36767653735 -1.1234987201 -0.087806898331 
-1.338476525 -0.55423315486 -1.3044083105 -0.93183549118 -1.036884557 -1.1425978612 -0.60782890915 -1.1519271512 -0.12602215051 
-0.97670830379 0.2834872784 -0.68566258402 0.53003449645 -0.3576185107 0.58101611191 -0.072664207057 0.50339635989 0.14340724021 
0.36892926778 0.28347014939 0.23341107088 1 -0 0.84059027315 -0.57948652723 0.49479297133 -1.0432990988 
0.030676096088 -1.2999137611 -0.45757871361 -1.3009872728 -0.86952162924 -1.0512400589 -1.1196949836 -0.60711172747 -1.1557706087 
-0.064500198479 -0.96968843948 0.46178205808 -0.59941272972 0.86244251213 -0.12092529303 1.0568216345 0.36783925271 1.0097653315 
0.76768956723 0.7386799572 0.99908921506 0.30929733804 1.0188235314 -0.17890688491 0.82887131406 -0.61448723812 0.47560069769 
-0.89830653027 0.039480830697 -0.96510056684 -0.38246797854 -0.79769957675 -0.69770828937 -0.43085458562 -0.83818123956 0.056152495545 
-0.77496595805 0.55653079648 -0.52445109746 0.95898420133 -0.14469009925 1.1717618466 0.27727860963 1.1425909079 0.64442109062 
0.87020090811 0.8709193765 0.40493709814 0.90102818582 -0.16172145812 0.72148658632 -0.71657242936 0.36474146111 -1.148969116 
-0.097845889114 -1.3748571955 -0.57156909689 -1.3556800104 -0.9601833623 -1.1079970651 -1.1891858551 -0.70015964258 -1.2243231669 
-0.23582663257 -1.0793870101 0.17568148836 -0.80752320431 0.4524148904 -0.48190948696 0.56746338409 -0.16852605565 0.54637013544 
0.088951025318 0.4442224165 0.27417896435 0.3138347491 1 -0 0.85152955907 -0.58851556702 0.51554967051 
-1.0595902966 0.059141824495 -1.3202523239 -0.42424645674 -1.3212907509 -0.83456389948 -1.0672951908 -1.0863769592 -0.61533549324 
-1.127016452 -0.062589337126 -0.94777054322 0.47442745469 -0.58573117818 0.8845938454 -0.11589960237 1.0856132275 0.36475999698 
1.0411639214 0.75790768407 0.76814526811 0.98465305342 0.33251521773 1.0021670624 -0.16534650171 0.8125336924 -0.6125811329 
0.46195946044 -0.90837721504 0.030526899124 -0.98581583923 -0.38529361091 -0.82635412397 -0.69360574867 -0.46385026067 -0.82700952892 
0.02272189876 -0.75719362779 0.52629602283 -0.50105178679 0.93481518792 -0.11699842692 1.155451061 0.30773348458 1.134738114 
0.67608606332 0.87029127422 0.90237339113 0.41156947638 0.93110413199 -0.15052085505 0.74933891109 -0.70301834815 0.38984171551 
-1.1352175013 -0.075792756686 -1.3627581777 -0.55276679592 -1.3465639202 -0.94483745742 -1.1024991909 -1.1774727948 -0.69812333632 
-1.2162153101 -0.23634830156 -1.0744721708 0.17387588718 -0.80502691152 0.45049267685 -0.48091282478 0.56603294792 -0.16829002712 
0.54553511492 0.088869468313 0.44379410258 0.27395464049 0.31361204506 1 -0 0.86773034805 -0.58873082896 
0.54652681148 -1.0589551742 0.10219872932 -1.3168892398 -0.37279351086 -1.3129673756 -0.77900415985 -1.0519942267 -1.0311742811 
-0.59182303523 -1.0763805547 -0.030866468041 -0.90527879866 0.51288440544 -0.5540397108 0.92686009764 -0.096568285643 1.1276156143 
0.37132037741 1.0782096862 0.75237361484 0.79559262754 0.96863224959 0.34647247686 0.9779770147 -0.16741184542 0.7829468033 